# vtk DataFile Version 4.2
vtk output
ASCII
DATASET UNSTRUCTURED_GRID
POINTS 2 float
-0.558647 0.829406 -1 -0.558647 0.829406 1 
METADATA
INFORMATION 2
NAME L2_NORM_RANGE LOCATION vtkDataArray
DATA 2 1.41421 1.41421 
NAME L2_NORM_FINITE_RANGE LOCATION vtkDataArray
DATA 2 1.41421 1.41421 

CELLS 1 3
2 0 1 

CELL_TYPES 1
3

CELL_DATA 1
SCALARS STLSolidLabeling float
LOOKUP_TABLE default
0 
METADATA
INFORMATION 0

FIELD FieldData 1
vtkOriginalCellIds 1 1 vtkIdType
604 
POINT_DATA 2
FIELD FieldData 1
vtkOriginalPointIds 1 2 vtkIdType
345 344 
